n -t 0 -s 0 -S DLABEL -l "node 1" -L ""
n -t 0 -s 1 -S DCOLOR -e "blue" -E ""
V -t * -v 1.0a5 -a 0
A -t * -n 1 -p 0 -o 0x7fffffff -c 30 -a 1
A -t * -h 1 -m 1073741823 -s 0
c -t * -i 1 -n red
c -t * -i 2 -n blue
n -t * -a 4 -s 4 -S UP -v circle -c black -i black
n -t * -a 0 -s 0 -S UP -v circle -c black -i black
n -t * -a 5 -s 5 -S UP -v circle -c black -i black
n -t * -a 1 -s 1 -S UP -v circle -c black -i black
n -t * -a 2 -s 2 -S UP -v circle -c black -i black
n -t * -a 3 -s 3 -S UP -v circle -c black -i black
l -t * -s 0 -d 2 -S UP -r 10000000 -D 0.01 -c black -o right-down
l -t * -s 1 -d 2 -S UP -r 10000000 -D 0.01 -c black -o right-up
l -t * -s 2 -d 3 -S UP -r 2000000 -D 0.01 -c black -o right
l -t * -s 3 -d 4 -S UP -r 10000000 -D 0.01 -c black -o right-up
l -t * -s 3 -d 5 -S UP -r 10000000 -D 0.01 -c black -o right-down
q -t * -s 2 -d 1 -a 0.5
q -t * -s 1 -d 2 -a 0.5
+ -t 0.000169788487334637 -s 0 -d 2 -p rtProtoLS -e 100 -c 0 -i 2 -a 0 -x {0.2 2.1 -1 ------- null}
- -t 0.000169788487334637 -s 0 -d 2 -p rtProtoLS -e 100 -c 0 -i 2 -a 0 -x {0.2 2.1 -1 ------- null}
h -t 0.000169788487334637 -s 0 -d 2 -p rtProtoLS -e 100 -c 0 -i 2 -a 0 -x {0.2 2.1 -1 ------- null}
+ -t 0.00710233021858257 -s 2 -d 0 -p rtProtoLS -e 100 -c 0 -i 3 -a 0 -x {2.1 0.2 -1 ------- null}
- -t 0.00710233021858257 -s 2 -d 0 -p rtProtoLS -e 100 -c 0 -i 3 -a 0 -x {2.1 0.2 -1 ------- null}
h -t 0.00710233021858257 -s 2 -d 0 -p rtProtoLS -e 100 -c 0 -i 3 -a 0 -x {2.1 0.2 -1 ------- null}
+ -t 0.00710233021858257 -s 2 -d 1 -p rtProtoLS -e 100 -c 0 -i 4 -a 0 -x {2.1 1.2 -1 ------- null}
- -t 0.00710233021858257 -s 2 -d 1 -p rtProtoLS -e 100 -c 0 -i 4 -a 0 -x {2.1 1.2 -1 ------- null}
h -t 0.00710233021858257 -s 2 -d 1 -p rtProtoLS -e 100 -c 0 -i 4 -a 0 -x {2.1 1.2 -1 ------- null}
+ -t 0.00710233021858257 -s 2 -d 3 -p rtProtoLS -e 100 -c 0 -i 5 -a 0 -x {2.1 3.1 -1 ------- null}
- -t 0.00710233021858257 -s 2 -d 3 -p rtProtoLS -e 100 -c 0 -i 5 -a 0 -x {2.1 3.1 -1 ------- null}
h -t 0.00710233021858257 -s 2 -d 3 -p rtProtoLS -e 100 -c 0 -i 5 -a 0 -x {2.1 3.1 -1 ------- null}
r -t 0.0102497884873346 -s 0 -d 2 -p rtProtoLS -e 100 -c 0 -i 2 -a 0 -x {0.2 2.1 -1 ------- null}
+ -t 0.0102497884873346 -s 2 -d 0 -p rtProtoLS -e 20 -c 0 -i 6 -a 0 -x {2.1 0.2 -1 ------- null}
- -t 0.0102497884873346 -s 2 -d 0 -p rtProtoLS -e 20 -c 0 -i 6 -a 0 -x {2.1 0.2 -1 ------- null}
h -t 0.0102497884873346 -s 2 -d 0 -p rtProtoLS -e 20 -c 0 -i 6 -a 0 -x {2.1 0.2 -1 ------- null}
+ -t 0.0102497884873346 -s 2 -d 1 -p rtProtoLS -e 100 -c 0 -i 7 -a 0 -x {2.1 1.2 -1 ------- null}
- -t 0.0102497884873346 -s 2 -d 1 -p rtProtoLS -e 100 -c 0 -i 7 -a 0 -x {2.1 1.2 -1 ------- null}
h -t 0.0102497884873346 -s 2 -d 1 -p rtProtoLS -e 100 -c 0 -i 7 -a 0 -x {2.1 1.2 -1 ------- null}
+ -t 0.0102497884873346 -s 2 -d 3 -p rtProtoLS -e 100 -c 0 -i 8 -a 0 -x {2.1 3.1 -1 ------- null}
- -t 0.0102497884873346 -s 2 -d 3 -p rtProtoLS -e 100 -c 0 -i 8 -a 0 -x {2.1 3.1 -1 ------- null}
h -t 0.0102497884873346 -s 2 -d 3 -p rtProtoLS -e 100 -c 0 -i 8 -a 0 -x {2.1 3.1 -1 ------- null}
r -t 0.0171823302185826 -s 2 -d 0 -p rtProtoLS -e 100 -c 0 -i 3 -a 0 -x {2.1 0.2 -1 ------- null}
+ -t 0.0171823302185826 -s 0 -d 2 -p rtProtoLS -e 20 -c 0 -i 9 -a 0 -x {0.2 2.1 -1 ------- null}
- -t 0.0171823302185826 -s 0 -d 2 -p rtProtoLS -e 20 -c 0 -i 9 -a 0 -x {0.2 2.1 -1 ------- null}
h -t 0.0171823302185826 -s 0 -d 2 -p rtProtoLS -e 20 -c 0 -i 9 -a 0 -x {0.2 2.1 -1 ------- null}
r -t 0.0171823302185826 -s 2 -d 1 -p rtProtoLS -e 100 -c 0 -i 4 -a 0 -x {2.1 1.2 -1 ------- null}
+ -t 0.0171823302185826 -s 1 -d 2 -p rtProtoLS -e 20 -c 0 -i 10 -a 0 -x {1.2 2.1 -1 ------- null}
- -t 0.0171823302185826 -s 1 -d 2 -p rtProtoLS -e 20 -c 0 -i 10 -a 0 -x {1.2 2.1 -1 ------- null}
h -t 0.0171823302185826 -s 1 -d 2 -p rtProtoLS -e 20 -c 0 -i 10 -a 0 -x {1.2 2.1 -1 ------- null}
r -t 0.0175023302185826 -s 2 -d 3 -p rtProtoLS -e 100 -c 0 -i 5 -a 0 -x {2.1 3.1 -1 ------- null}
+ -t 0.0175023302185826 -s 3 -d 2 -p rtProtoLS -e 20 -c 0 -i 11 -a 0 -x {3.1 2.1 -1 ------- null}
- -t 0.0175023302185826 -s 3 -d 2 -p rtProtoLS -e 20 -c 0 -i 11 -a 0 -x {3.1 2.1 -1 ------- null}
h -t 0.0175023302185826 -s 3 -d 2 -p rtProtoLS -e 20 -c 0 -i 11 -a 0 -x {3.1 2.1 -1 ------- null}
+ -t 0.0175023302185826 -s 3 -d 4 -p rtProtoLS -e 100 -c 0 -i 12 -a 0 -x {3.1 4.2 -1 ------- null}
- -t 0.0175023302185826 -s 3 -d 4 -p rtProtoLS -e 100 -c 0 -i 12 -a 0 -x {3.1 4.2 -1 ------- null}
h -t 0.0175023302185826 -s 3 -d 4 -p rtProtoLS -e 100 -c 0 -i 12 -a 0 -x {3.1 4.2 -1 ------- null}
+ -t 0.0175023302185826 -s 3 -d 5 -p rtProtoLS -e 100 -c 0 -i 13 -a 0 -x {3.1 5.2 -1 ------- null}
- -t 0.0175023302185826 -s 3 -d 5 -p rtProtoLS -e 100 -c 0 -i 13 -a 0 -x {3.1 5.2 -1 ------- null}
h -t 0.0175023302185826 -s 3 -d 5 -p rtProtoLS -e 100 -c 0 -i 13 -a 0 -x {3.1 5.2 -1 ------- null}
r -t 0.0202657884873346 -s 2 -d 0 -p rtProtoLS -e 20 -c 0 -i 6 -a 0 -x {2.1 0.2 -1 ------- null}
r -t 0.0203297884873346 -s 2 -d 1 -p rtProtoLS -e 100 -c 0 -i 7 -a 0 -x {2.1 1.2 -1 ------- null}
+ -t 0.0203297884873346 -s 1 -d 2 -p rtProtoLS -e 20 -c 0 -i 14 -a 0 -x {1.2 2.1 -1 ------- null}
- -t 0.0203297884873346 -s 1 -d 2 -p rtProtoLS -e 20 -c 0 -i 14 -a 0 -x {1.2 2.1 -1 ------- null}
h -t 0.0203297884873346 -s 1 -d 2 -p rtProtoLS -e 20 -c 0 -i 14 -a 0 -x {1.2 2.1 -1 ------- null}
r -t 0.0206497884873346 -s 2 -d 3 -p rtProtoLS -e 100 -c 0 -i 8 -a 0 -x {2.1 3.1 -1 ------- null}
+ -t 0.0206497884873346 -s 3 -d 2 -p rtProtoLS -e 20 -c 0 -i 15 -a 0 -x {3.1 2.1 -1 ------- null}
- -t 0.0206497884873346 -s 3 -d 2 -p rtProtoLS -e 20 -c 0 -i 15 -a 0 -x {3.1 2.1 -1 ------- null}
h -t 0.0206497884873346 -s 3 -d 2 -p rtProtoLS -e 20 -c 0 -i 15 -a 0 -x {3.1 2.1 -1 ------- null}
+ -t 0.0206497884873346 -s 3 -d 4 -p rtProtoLS -e 100 -c 0 -i 16 -a 0 -x {3.1 4.2 -1 ------- null}
- -t 0.0206497884873346 -s 3 -d 4 -p rtProtoLS -e 100 -c 0 -i 16 -a 0 -x {3.1 4.2 -1 ------- null}
h -t 0.0206497884873346 -s 3 -d 4 -p rtProtoLS -e 100 -c 0 -i 16 -a 0 -x {3.1 4.2 -1 ------- null}
+ -t 0.0206497884873346 -s 3 -d 5 -p rtProtoLS -e 100 -c 0 -i 17 -a 0 -x {3.1 5.2 -1 ------- null}
- -t 0.0206497884873346 -s 3 -d 5 -p rtProtoLS -e 100 -c 0 -i 17 -a 0 -x {3.1 5.2 -1 ------- null}
h -t 0.0206497884873346 -s 3 -d 5 -p rtProtoLS -e 100 -c 0 -i 17 -a 0 -x {3.1 5.2 -1 ------- null}
r -t 0.0271983302185826 -s 0 -d 2 -p rtProtoLS -e 20 -c 0 -i 9 -a 0 -x {0.2 2.1 -1 ------- null}
r -t 0.0271983302185826 -s 1 -d 2 -p rtProtoLS -e 20 -c 0 -i 10 -a 0 -x {1.2 2.1 -1 ------- null}
r -t 0.0275823302185826 -s 3 -d 2 -p rtProtoLS -e 20 -c 0 -i 11 -a 0 -x {3.1 2.1 -1 ------- null}
r -t 0.0275823302185826 -s 3 -d 4 -p rtProtoLS -e 100 -c 0 -i 12 -a 0 -x {3.1 4.2 -1 ------- null}
+ -t 0.0275823302185826 -s 4 -d 3 -p rtProtoLS -e 20 -c 0 -i 18 -a 0 -x {4.2 3.1 -1 ------- null}
- -t 0.0275823302185826 -s 4 -d 3 -p rtProtoLS -e 20 -c 0 -i 18 -a 0 -x {4.2 3.1 -1 ------- null}
h -t 0.0275823302185826 -s 4 -d 3 -p rtProtoLS -e 20 -c 0 -i 18 -a 0 -x {4.2 3.1 -1 ------- null}
r -t 0.0275823302185826 -s 3 -d 5 -p rtProtoLS -e 100 -c 0 -i 13 -a 0 -x {3.1 5.2 -1 ------- null}
+ -t 0.0275823302185826 -s 5 -d 3 -p rtProtoLS -e 20 -c 0 -i 19 -a 0 -x {5.2 3.1 -1 ------- null}
- -t 0.0275823302185826 -s 5 -d 3 -p rtProtoLS -e 20 -c 0 -i 19 -a 0 -x {5.2 3.1 -1 ------- null}
h -t 0.0275823302185826 -s 5 -d 3 -p rtProtoLS -e 20 -c 0 -i 19 -a 0 -x {5.2 3.1 -1 ------- null}
r -t 0.0303457884873346 -s 1 -d 2 -p rtProtoLS -e 20 -c 0 -i 14 -a 0 -x {1.2 2.1 -1 ------- null}
r -t 0.0307297884873346 -s 3 -d 2 -p rtProtoLS -e 20 -c 0 -i 15 -a 0 -x {3.1 2.1 -1 ------- null}
r -t 0.0307297884873346 -s 3 -d 4 -p rtProtoLS -e 100 -c 0 -i 16 -a 0 -x {3.1 4.2 -1 ------- null}
+ -t 0.0307297884873346 -s 4 -d 3 -p rtProtoLS -e 20 -c 0 -i 20 -a 0 -x {4.2 3.1 -1 ------- null}
- -t 0.0307297884873346 -s 4 -d 3 -p rtProtoLS -e 20 -c 0 -i 20 -a 0 -x {4.2 3.1 -1 ------- null}
h -t 0.0307297884873346 -s 4 -d 3 -p rtProtoLS -e 20 -c 0 -i 20 -a 0 -x {4.2 3.1 -1 ------- null}
r -t 0.0307297884873346 -s 3 -d 5 -p rtProtoLS -e 100 -c 0 -i 17 -a 0 -x {3.1 5.2 -1 ------- null}
+ -t 0.0307297884873346 -s 5 -d 3 -p rtProtoLS -e 20 -c 0 -i 21 -a 0 -x {5.2 3.1 -1 ------- null}
- -t 0.0307297884873346 -s 5 -d 3 -p rtProtoLS -e 20 -c 0 -i 21 -a 0 -x {5.2 3.1 -1 ------- null}
h -t 0.0307297884873346 -s 5 -d 3 -p rtProtoLS -e 20 -c 0 -i 21 -a 0 -x {5.2 3.1 -1 ------- null}
r -t 0.0375983302185826 -s 4 -d 3 -p rtProtoLS -e 20 -c 0 -i 18 -a 0 -x {4.2 3.1 -1 ------- null}
r -t 0.0375983302185826 -s 5 -d 3 -p rtProtoLS -e 20 -c 0 -i 19 -a 0 -x {5.2 3.1 -1 ------- null}
r -t 0.0407457884873346 -s 4 -d 3 -p rtProtoLS -e 20 -c 0 -i 20 -a 0 -x {4.2 3.1 -1 ------- null}
r -t 0.0407457884873346 -s 5 -d 3 -p rtProtoLS -e 20 -c 0 -i 21 -a 0 -x {5.2 3.1 -1 ------- null}
+ -t 0.04406133552271 -s 3 -d 2 -p rtProtoLS -e 100 -c 0 -i 22 -a 0 -x {3.1 2.1 -1 ------- null}
- -t 0.04406133552271 -s 3 -d 2 -p rtProtoLS -e 100 -c 0 -i 22 -a 0 -x {3.1 2.1 -1 ------- null}
h -t 0.04406133552271 -s 3 -d 2 -p rtProtoLS -e 100 -c 0 -i 22 -a 0 -x {3.1 2.1 -1 ------- null}
+ -t 0.04406133552271 -s 3 -d 4 -p rtProtoLS -e 100 -c 0 -i 23 -a 0 -x {3.1 4.2 -1 ------- null}
- -t 0.04406133552271 -s 3 -d 4 -p rtProtoLS -e 100 -c 0 -i 23 -a 0 -x {3.1 4.2 -1 ------- null}
h -t 0.04406133552271 -s 3 -d 4 -p rtProtoLS -e 100 -c 0 -i 23 -a 0 -x {3.1 4.2 -1 ------- null}
+ -t 0.04406133552271 -s 3 -d 5 -p rtProtoLS -e 100 -c 0 -i 24 -a 0 -x {3.1 5.2 -1 ------- null}
- -t 0.04406133552271 -s 3 -d 5 -p rtProtoLS -e 100 -c 0 -i 24 -a 0 -x {3.1 5.2 -1 ------- null}
h -t 0.04406133552271 -s 3 -d 5 -p rtProtoLS -e 100 -c 0 -i 24 -a 0 -x {3.1 5.2 -1 ------- null}
r -t 0.05414133552271 -s 3 -d 4 -p rtProtoLS -e 100 -c 0 -i 23 -a 0 -x {3.1 4.2 -1 ------- null}
+ -t 0.05414133552271 -s 4 -d 3 -p rtProtoLS -e 20 -c 0 -i 25 -a 0 -x {4.2 3.1 -1 ------- null}
- -t 0.05414133552271 -s 4 -d 3 -p rtProtoLS -e 20 -c 0 -i 25 -a 0 -x {4.2 3.1 -1 ------- null}
h -t 0.05414133552271 -s 4 -d 3 -p rtProtoLS -e 20 -c 0 -i 25 -a 0 -x {4.2 3.1 -1 ------- null}
r -t 0.05414133552271 -s 3 -d 5 -p rtProtoLS -e 100 -c 0 -i 24 -a 0 -x {3.1 5.2 -1 ------- null}
+ -t 0.05414133552271 -s 5 -d 3 -p rtProtoLS -e 20 -c 0 -i 26 -a 0 -x {5.2 3.1 -1 ------- null}
- -t 0.05414133552271 -s 5 -d 3 -p rtProtoLS -e 20 -c 0 -i 26 -a 0 -x {5.2 3.1 -1 ------- null}
h -t 0.05414133552271 -s 5 -d 3 -p rtProtoLS -e 20 -c 0 -i 26 -a 0 -x {5.2 3.1 -1 ------- null}
r -t 0.05446133552271 -s 3 -d 2 -p rtProtoLS -e 100 -c 0 -i 22 -a 0 -x {3.1 2.1 -1 ------- null}
+ -t 0.05446133552271 -s 2 -d 3 -p rtProtoLS -e 20 -c 0 -i 27 -a 0 -x {2.1 3.1 -1 ------- null}
- -t 0.05446133552271 -s 2 -d 3 -p rtProtoLS -e 20 -c 0 -i 27 -a 0 -x {2.1 3.1 -1 ------- null}
h -t 0.05446133552271 -s 2 -d 3 -p rtProtoLS -e 20 -c 0 -i 27 -a 0 -x {2.1 3.1 -1 ------- null}
+ -t 0.05446133552271 -s 2 -d 0 -p rtProtoLS -e 100 -c 0 -i 28 -a 0 -x {2.1 0.2 -1 ------- null}
- -t 0.05446133552271 -s 2 -d 0 -p rtProtoLS -e 100 -c 0 -i 28 -a 0 -x {2.1 0.2 -1 ------- null}
h -t 0.05446133552271 -s 2 -d 0 -p rtProtoLS -e 100 -c 0 -i 28 -a 0 -x {2.1 0.2 -1 ------- null}
+ -t 0.05446133552271 -s 2 -d 1 -p rtProtoLS -e 100 -c 0 -i 29 -a 0 -x {2.1 1.2 -1 ------- null}
- -t 0.05446133552271 -s 2 -d 1 -p rtProtoLS -e 100 -c 0 -i 29 -a 0 -x {2.1 1.2 -1 ------- null}
h -t 0.05446133552271 -s 2 -d 1 -p rtProtoLS -e 100 -c 0 -i 29 -a 0 -x {2.1 1.2 -1 ------- null}
r -t 0.06415733552271 -s 4 -d 3 -p rtProtoLS -e 20 -c 0 -i 25 -a 0 -x {4.2 3.1 -1 ------- null}
r -t 0.06415733552271 -s 5 -d 3 -p rtProtoLS -e 20 -c 0 -i 26 -a 0 -x {5.2 3.1 -1 ------- null}
r -t 0.06454133552271 -s 2 -d 3 -p rtProtoLS -e 20 -c 0 -i 27 -a 0 -x {2.1 3.1 -1 ------- null}
r -t 0.06454133552271 -s 2 -d 0 -p rtProtoLS -e 100 -c 0 -i 28 -a 0 -x {2.1 0.2 -1 ------- null}
+ -t 0.06454133552271 -s 0 -d 2 -p rtProtoLS -e 20 -c 0 -i 30 -a 0 -x {0.2 2.1 -1 ------- null}
- -t 0.06454133552271 -s 0 -d 2 -p rtProtoLS -e 20 -c 0 -i 30 -a 0 -x {0.2 2.1 -1 ------- null}
h -t 0.06454133552271 -s 0 -d 2 -p rtProtoLS -e 20 -c 0 -i 30 -a 0 -x {0.2 2.1 -1 ------- null}
r -t 0.06454133552271 -s 2 -d 1 -p rtProtoLS -e 100 -c 0 -i 29 -a 0 -x {2.1 1.2 -1 ------- null}
+ -t 0.06454133552271 -s 1 -d 2 -p rtProtoLS -e 20 -c 0 -i 31 -a 0 -x {1.2 2.1 -1 ------- null}
- -t 0.06454133552271 -s 1 -d 2 -p rtProtoLS -e 20 -c 0 -i 31 -a 0 -x {1.2 2.1 -1 ------- null}
h -t 0.06454133552271 -s 1 -d 2 -p rtProtoLS -e 20 -c 0 -i 31 -a 0 -x {1.2 2.1 -1 ------- null}
r -t 0.07455733552271 -s 0 -d 2 -p rtProtoLS -e 20 -c 0 -i 30 -a 0 -x {0.2 2.1 -1 ------- null}
r -t 0.07455733552271 -s 1 -d 2 -p rtProtoLS -e 20 -c 0 -i 31 -a 0 -x {1.2 2.1 -1 ------- null}
+ -t 0.22058669092161 -s 4 -d 3 -p rtProtoLS -e 100 -c 0 -i 32 -a 0 -x {4.2 3.1 -1 ------- null}
- -t 0.22058669092161 -s 4 -d 3 -p rtProtoLS -e 100 -c 0 -i 32 -a 0 -x {4.2 3.1 -1 ------- null}
h -t 0.22058669092161 -s 4 -d 3 -p rtProtoLS -e 100 -c 0 -i 32 -a 0 -x {4.2 3.1 -1 ------- null}
r -t 0.23066669092161 -s 4 -d 3 -p rtProtoLS -e 100 -c 0 -i 32 -a 0 -x {4.2 3.1 -1 ------- null}
+ -t 0.23066669092161 -s 3 -d 4 -p rtProtoLS -e 20 -c 0 -i 33 -a 0 -x {3.1 4.2 -1 ------- null}
- -t 0.23066669092161 -s 3 -d 4 -p rtProtoLS -e 20 -c 0 -i 33 -a 0 -x {3.1 4.2 -1 ------- null}
h -t 0.23066669092161 -s 3 -d 4 -p rtProtoLS -e 20 -c 0 -i 33 -a 0 -x {3.1 4.2 -1 ------- null}
+ -t 0.23066669092161 -s 3 -d 2 -p rtProtoLS -e 100 -c 0 -i 34 -a 0 -x {3.1 2.1 -1 ------- null}
- -t 0.23066669092161 -s 3 -d 2 -p rtProtoLS -e 100 -c 0 -i 34 -a 0 -x {3.1 2.1 -1 ------- null}
h -t 0.23066669092161 -s 3 -d 2 -p rtProtoLS -e 100 -c 0 -i 34 -a 0 -x {3.1 2.1 -1 ------- null}
+ -t 0.23066669092161 -s 3 -d 5 -p rtProtoLS -e 100 -c 0 -i 35 -a 0 -x {3.1 5.2 -1 ------- null}
- -t 0.23066669092161 -s 3 -d 5 -p rtProtoLS -e 100 -c 0 -i 35 -a 0 -x {3.1 5.2 -1 ------- null}
h -t 0.23066669092161 -s 3 -d 5 -p rtProtoLS -e 100 -c 0 -i 35 -a 0 -x {3.1 5.2 -1 ------- null}
r -t 0.24068269092161 -s 3 -d 4 -p rtProtoLS -e 20 -c 0 -i 33 -a 0 -x {3.1 4.2 -1 ------- null}
r -t 0.24074669092161 -s 3 -d 5 -p rtProtoLS -e 100 -c 0 -i 35 -a 0 -x {3.1 5.2 -1 ------- null}
+ -t 0.24074669092161 -s 5 -d 3 -p rtProtoLS -e 20 -c 0 -i 36 -a 0 -x {5.2 3.1 -1 ------- null}
- -t 0.24074669092161 -s 5 -d 3 -p rtProtoLS -e 20 -c 0 -i 36 -a 0 -x {5.2 3.1 -1 ------- null}
h -t 0.24074669092161 -s 5 -d 3 -p rtProtoLS -e 20 -c 0 -i 36 -a 0 -x {5.2 3.1 -1 ------- null}
r -t 0.24106669092161 -s 3 -d 2 -p rtProtoLS -e 100 -c 0 -i 34 -a 0 -x {3.1 2.1 -1 ------- null}
+ -t 0.24106669092161 -s 2 -d 3 -p rtProtoLS -e 20 -c 0 -i 37 -a 0 -x {2.1 3.1 -1 ------- null}
- -t 0.24106669092161 -s 2 -d 3 -p rtProtoLS -e 20 -c 0 -i 37 -a 0 -x {2.1 3.1 -1 ------- null}
h -t 0.24106669092161 -s 2 -d 3 -p rtProtoLS -e 20 -c 0 -i 37 -a 0 -x {2.1 3.1 -1 ------- null}
+ -t 0.24106669092161 -s 2 -d 0 -p rtProtoLS -e 100 -c 0 -i 38 -a 0 -x {2.1 0.2 -1 ------- null}
- -t 0.24106669092161 -s 2 -d 0 -p rtProtoLS -e 100 -c 0 -i 38 -a 0 -x {2.1 0.2 -1 ------- null}
h -t 0.24106669092161 -s 2 -d 0 -p rtProtoLS -e 100 -c 0 -i 38 -a 0 -x {2.1 0.2 -1 ------- null}
+ -t 0.24106669092161 -s 2 -d 1 -p rtProtoLS -e 100 -c 0 -i 39 -a 0 -x {2.1 1.2 -1 ------- null}
- -t 0.24106669092161 -s 2 -d 1 -p rtProtoLS -e 100 -c 0 -i 39 -a 0 -x {2.1 1.2 -1 ------- null}
h -t 0.24106669092161 -s 2 -d 1 -p rtProtoLS -e 100 -c 0 -i 39 -a 0 -x {2.1 1.2 -1 ------- null}
r -t 0.25076269092161 -s 5 -d 3 -p rtProtoLS -e 20 -c 0 -i 36 -a 0 -x {5.2 3.1 -1 ------- null}
r -t 0.25114669092161 -s 2 -d 3 -p rtProtoLS -e 20 -c 0 -i 37 -a 0 -x {2.1 3.1 -1 ------- null}
r -t 0.25114669092161 -s 2 -d 0 -p rtProtoLS -e 100 -c 0 -i 38 -a 0 -x {2.1 0.2 -1 ------- null}
+ -t 0.25114669092161 -s 0 -d 2 -p rtProtoLS -e 20 -c 0 -i 40 -a 0 -x {0.2 2.1 -1 ------- null}
- -t 0.25114669092161 -s 0 -d 2 -p rtProtoLS -e 20 -c 0 -i 40 -a 0 -x {0.2 2.1 -1 ------- null}
h -t 0.25114669092161 -s 0 -d 2 -p rtProtoLS -e 20 -c 0 -i 40 -a 0 -x {0.2 2.1 -1 ------- null}
r -t 0.25114669092161 -s 2 -d 1 -p rtProtoLS -e 100 -c 0 -i 39 -a 0 -x {2.1 1.2 -1 ------- null}
+ -t 0.25114669092161 -s 1 -d 2 -p rtProtoLS -e 20 -c 0 -i 41 -a 0 -x {1.2 2.1 -1 ------- null}
- -t 0.25114669092161 -s 1 -d 2 -p rtProtoLS -e 20 -c 0 -i 41 -a 0 -x {1.2 2.1 -1 ------- null}
h -t 0.25114669092161 -s 1 -d 2 -p rtProtoLS -e 20 -c 0 -i 41 -a 0 -x {1.2 2.1 -1 ------- null}
r -t 0.26116269092161 -s 0 -d 2 -p rtProtoLS -e 20 -c 0 -i 40 -a 0 -x {0.2 2.1 -1 ------- null}
r -t 0.26116269092161 -s 1 -d 2 -p rtProtoLS -e 20 -c 0 -i 41 -a 0 -x {1.2 2.1 -1 ------- null}
+ -t 0.277940357931862 -s 1 -d 2 -p rtProtoLS -e 100 -c 0 -i 42 -a 0 -x {1.2 2.1 -1 ------- null}
- -t 0.277940357931862 -s 1 -d 2 -p rtProtoLS -e 100 -c 0 -i 42 -a 0 -x {1.2 2.1 -1 ------- null}
h -t 0.277940357931862 -s 1 -d 2 -p rtProtoLS -e 100 -c 0 -i 42 -a 0 -x {1.2 2.1 -1 ------- null}
r -t 0.288020357931862 -s 1 -d 2 -p rtProtoLS -e 100 -c 0 -i 42 -a 0 -x {1.2 2.1 -1 ------- null}
+ -t 0.288020357931862 -s 2 -d 1 -p rtProtoLS -e 20 -c 0 -i 43 -a 0 -x {2.1 1.2 -1 ------- null}
- -t 0.288020357931862 -s 2 -d 1 -p rtProtoLS -e 20 -c 0 -i 43 -a 0 -x {2.1 1.2 -1 ------- null}
h -t 0.288020357931862 -s 2 -d 1 -p rtProtoLS -e 20 -c 0 -i 43 -a 0 -x {2.1 1.2 -1 ------- null}
+ -t 0.288020357931862 -s 2 -d 0 -p rtProtoLS -e 100 -c 0 -i 44 -a 0 -x {2.1 0.2 -1 ------- null}
- -t 0.288020357931862 -s 2 -d 0 -p rtProtoLS -e 100 -c 0 -i 44 -a 0 -x {2.1 0.2 -1 ------- null}
h -t 0.288020357931862 -s 2 -d 0 -p rtProtoLS -e 100 -c 0 -i 44 -a 0 -x {2.1 0.2 -1 ------- null}
+ -t 0.288020357931862 -s 2 -d 3 -p rtProtoLS -e 100 -c 0 -i 45 -a 0 -x {2.1 3.1 -1 ------- null}
- -t 0.288020357931862 -s 2 -d 3 -p rtProtoLS -e 100 -c 0 -i 45 -a 0 -x {2.1 3.1 -1 ------- null}
h -t 0.288020357931862 -s 2 -d 3 -p rtProtoLS -e 100 -c 0 -i 45 -a 0 -x {2.1 3.1 -1 ------- null}
r -t 0.298036357931862 -s 2 -d 1 -p rtProtoLS -e 20 -c 0 -i 43 -a 0 -x {2.1 1.2 -1 ------- null}
r -t 0.298100357931862 -s 2 -d 0 -p rtProtoLS -e 100 -c 0 -i 44 -a 0 -x {2.1 0.2 -1 ------- null}
+ -t 0.298100357931862 -s 0 -d 2 -p rtProtoLS -e 20 -c 0 -i 46 -a 0 -x {0.2 2.1 -1 ------- null}
- -t 0.298100357931862 -s 0 -d 2 -p rtProtoLS -e 20 -c 0 -i 46 -a 0 -x {0.2 2.1 -1 ------- null}
h -t 0.298100357931862 -s 0 -d 2 -p rtProtoLS -e 20 -c 0 -i 46 -a 0 -x {0.2 2.1 -1 ------- null}
r -t 0.298420357931862 -s 2 -d 3 -p rtProtoLS -e 100 -c 0 -i 45 -a 0 -x {2.1 3.1 -1 ------- null}
+ -t 0.298420357931862 -s 3 -d 2 -p rtProtoLS -e 20 -c 0 -i 47 -a 0 -x {3.1 2.1 -1 ------- null}
- -t 0.298420357931862 -s 3 -d 2 -p rtProtoLS -e 20 -c 0 -i 47 -a 0 -x {3.1 2.1 -1 ------- null}
h -t 0.298420357931862 -s 3 -d 2 -p rtProtoLS -e 20 -c 0 -i 47 -a 0 -x {3.1 2.1 -1 ------- null}
+ -t 0.298420357931862 -s 3 -d 4 -p rtProtoLS -e 100 -c 0 -i 48 -a 0 -x {3.1 4.2 -1 ------- null}
- -t 0.298420357931862 -s 3 -d 4 -p rtProtoLS -e 100 -c 0 -i 48 -a 0 -x {3.1 4.2 -1 ------- null}
h -t 0.298420357931862 -s 3 -d 4 -p rtProtoLS -e 100 -c 0 -i 48 -a 0 -x {3.1 4.2 -1 ------- null}
+ -t 0.298420357931862 -s 3 -d 5 -p rtProtoLS -e 100 -c 0 -i 49 -a 0 -x {3.1 5.2 -1 ------- null}
- -t 0.298420357931862 -s 3 -d 5 -p rtProtoLS -e 100 -c 0 -i 49 -a 0 -x {3.1 5.2 -1 ------- null}
h -t 0.298420357931862 -s 3 -d 5 -p rtProtoLS -e 100 -c 0 -i 49 -a 0 -x {3.1 5.2 -1 ------- null}
r -t 0.308116357931862 -s 0 -d 2 -p rtProtoLS -e 20 -c 0 -i 46 -a 0 -x {0.2 2.1 -1 ------- null}
r -t 0.308500357931862 -s 3 -d 2 -p rtProtoLS -e 20 -c 0 -i 47 -a 0 -x {3.1 2.1 -1 ------- null}
r -t 0.308500357931862 -s 3 -d 4 -p rtProtoLS -e 100 -c 0 -i 48 -a 0 -x {3.1 4.2 -1 ------- null}
+ -t 0.308500357931862 -s 4 -d 3 -p rtProtoLS -e 20 -c 0 -i 50 -a 0 -x {4.2 3.1 -1 ------- null}
- -t 0.308500357931862 -s 4 -d 3 -p rtProtoLS -e 20 -c 0 -i 50 -a 0 -x {4.2 3.1 -1 ------- null}
h -t 0.308500357931862 -s 4 -d 3 -p rtProtoLS -e 20 -c 0 -i 50 -a 0 -x {4.2 3.1 -1 ------- null}
r -t 0.308500357931862 -s 3 -d 5 -p rtProtoLS -e 100 -c 0 -i 49 -a 0 -x {3.1 5.2 -1 ------- null}
+ -t 0.308500357931862 -s 5 -d 3 -p rtProtoLS -e 20 -c 0 -i 51 -a 0 -x {5.2 3.1 -1 ------- null}
- -t 0.308500357931862 -s 5 -d 3 -p rtProtoLS -e 20 -c 0 -i 51 -a 0 -x {5.2 3.1 -1 ------- null}
h -t 0.308500357931862 -s 5 -d 3 -p rtProtoLS -e 20 -c 0 -i 51 -a 0 -x {5.2 3.1 -1 ------- null}
r -t 0.318516357931862 -s 4 -d 3 -p rtProtoLS -e 20 -c 0 -i 50 -a 0 -x {4.2 3.1 -1 ------- null}
r -t 0.318516357931862 -s 5 -d 3 -p rtProtoLS -e 20 -c 0 -i 51 -a 0 -x {5.2 3.1 -1 ------- null}
+ -t 0.399577726796073 -s 5 -d 3 -p rtProtoLS -e 100 -c 0 -i 52 -a 0 -x {5.2 3.1 -1 ------- null}
- -t 0.399577726796073 -s 5 -d 3 -p rtProtoLS -e 100 -c 0 -i 52 -a 0 -x {5.2 3.1 -1 ------- null}
h -t 0.399577726796073 -s 5 -d 3 -p rtProtoLS -e 100 -c 0 -i 52 -a 0 -x {5.2 3.1 -1 ------- null}
r -t 0.409657726796073 -s 5 -d 3 -p rtProtoLS -e 100 -c 0 -i 52 -a 0 -x {5.2 3.1 -1 ------- null}
+ -t 0.409657726796073 -s 3 -d 5 -p rtProtoLS -e 20 -c 0 -i 53 -a 0 -x {3.1 5.2 -1 ------- null}
- -t 0.409657726796073 -s 3 -d 5 -p rtProtoLS -e 20 -c 0 -i 53 -a 0 -x {3.1 5.2 -1 ------- null}
h -t 0.409657726796073 -s 3 -d 5 -p rtProtoLS -e 20 -c 0 -i 53 -a 0 -x {3.1 5.2 -1 ------- null}
+ -t 0.409657726796073 -s 3 -d 2 -p rtProtoLS -e 100 -c 0 -i 54 -a 0 -x {3.1 2.1 -1 ------- null}
- -t 0.409657726796073 -s 3 -d 2 -p rtProtoLS -e 100 -c 0 -i 54 -a 0 -x {3.1 2.1 -1 ------- null}
h -t 0.409657726796073 -s 3 -d 2 -p rtProtoLS -e 100 -c 0 -i 54 -a 0 -x {3.1 2.1 -1 ------- null}
+ -t 0.409657726796073 -s 3 -d 4 -p rtProtoLS -e 100 -c 0 -i 55 -a 0 -x {3.1 4.2 -1 ------- null}
- -t 0.409657726796073 -s 3 -d 4 -p rtProtoLS -e 100 -c 0 -i 55 -a 0 -x {3.1 4.2 -1 ------- null}
h -t 0.409657726796073 -s 3 -d 4 -p rtProtoLS -e 100 -c 0 -i 55 -a 0 -x {3.1 4.2 -1 ------- null}
r -t 0.419673726796073 -s 3 -d 5 -p rtProtoLS -e 20 -c 0 -i 53 -a 0 -x {3.1 5.2 -1 ------- null}
r -t 0.419737726796073 -s 3 -d 4 -p rtProtoLS -e 100 -c 0 -i 55 -a 0 -x {3.1 4.2 -1 ------- null}
+ -t 0.419737726796073 -s 4 -d 3 -p rtProtoLS -e 20 -c 0 -i 56 -a 0 -x {4.2 3.1 -1 ------- null}
- -t 0.419737726796073 -s 4 -d 3 -p rtProtoLS -e 20 -c 0 -i 56 -a 0 -x {4.2 3.1 -1 ------- null}
h -t 0.419737726796073 -s 4 -d 3 -p rtProtoLS -e 20 -c 0 -i 56 -a 0 -x {4.2 3.1 -1 ------- null}
r -t 0.420057726796073 -s 3 -d 2 -p rtProtoLS -e 100 -c 0 -i 54 -a 0 -x {3.1 2.1 -1 ------- null}
+ -t 0.420057726796073 -s 2 -d 3 -p rtProtoLS -e 20 -c 0 -i 57 -a 0 -x {2.1 3.1 -1 ------- null}
- -t 0.420057726796073 -s 2 -d 3 -p rtProtoLS -e 20 -c 0 -i 57 -a 0 -x {2.1 3.1 -1 ------- null}
h -t 0.420057726796073 -s 2 -d 3 -p rtProtoLS -e 20 -c 0 -i 57 -a 0 -x {2.1 3.1 -1 ------- null}
+ -t 0.420057726796073 -s 2 -d 0 -p rtProtoLS -e 100 -c 0 -i 58 -a 0 -x {2.1 0.2 -1 ------- null}
- -t 0.420057726796073 -s 2 -d 0 -p rtProtoLS -e 100 -c 0 -i 58 -a 0 -x {2.1 0.2 -1 ------- null}
h -t 0.420057726796073 -s 2 -d 0 -p rtProtoLS -e 100 -c 0 -i 58 -a 0 -x {2.1 0.2 -1 ------- null}
+ -t 0.420057726796073 -s 2 -d 1 -p rtProtoLS -e 100 -c 0 -i 59 -a 0 -x {2.1 1.2 -1 ------- null}
- -t 0.420057726796073 -s 2 -d 1 -p rtProtoLS -e 100 -c 0 -i 59 -a 0 -x {2.1 1.2 -1 ------- null}
h -t 0.420057726796073 -s 2 -d 1 -p rtProtoLS -e 100 -c 0 -i 59 -a 0 -x {2.1 1.2 -1 ------- null}
r -t 0.429753726796073 -s 4 -d 3 -p rtProtoLS -e 20 -c 0 -i 56 -a 0 -x {4.2 3.1 -1 ------- null}
r -t 0.430137726796073 -s 2 -d 3 -p rtProtoLS -e 20 -c 0 -i 57 -a 0 -x {2.1 3.1 -1 ------- null}
r -t 0.430137726796073 -s 2 -d 0 -p rtProtoLS -e 100 -c 0 -i 58 -a 0 -x {2.1 0.2 -1 ------- null}
+ -t 0.430137726796073 -s 0 -d 2 -p rtProtoLS -e 20 -c 0 -i 60 -a 0 -x {0.2 2.1 -1 ------- null}
- -t 0.430137726796073 -s 0 -d 2 -p rtProtoLS -e 20 -c 0 -i 60 -a 0 -x {0.2 2.1 -1 ------- null}
h -t 0.430137726796073 -s 0 -d 2 -p rtProtoLS -e 20 -c 0 -i 60 -a 0 -x {0.2 2.1 -1 ------- null}
r -t 0.430137726796073 -s 2 -d 1 -p rtProtoLS -e 100 -c 0 -i 59 -a 0 -x {2.1 1.2 -1 ------- null}
+ -t 0.430137726796073 -s 1 -d 2 -p rtProtoLS -e 20 -c 0 -i 61 -a 0 -x {1.2 2.1 -1 ------- null}
- -t 0.430137726796073 -s 1 -d 2 -p rtProtoLS -e 20 -c 0 -i 61 -a 0 -x {1.2 2.1 -1 ------- null}
h -t 0.430137726796073 -s 1 -d 2 -p rtProtoLS -e 20 -c 0 -i 61 -a 0 -x {1.2 2.1 -1 ------- null}
r -t 0.440153726796073 -s 0 -d 2 -p rtProtoLS -e 20 -c 0 -i 60 -a 0 -x {0.2 2.1 -1 ------- null}
r -t 0.440153726796073 -s 1 -d 2 -p rtProtoLS -e 20 -c 0 -i 61 -a 0 -x {1.2 2.1 -1 ------- null}
+ -t 3 -s 0 -d 2 -p tcp -e 40 -c 0 -i 62 -a 0 -x {0.0 4.0 0 ---A--- null}
- -t 3 -s 0 -d 2 -p tcp -e 40 -c 0 -i 62 -a 0 -x {0.0 4.0 0 ---A--- null}
h -t 3 -s 0 -d 2 -p tcp -e 40 -c 0 -i 62 -a 0 -x {0.0 4.0 -1 ---A--- null}
+ -t 3 -s 1 -d 2 -p tcp -e 40 -c 0 -i 63 -a 0 -x {1.0 5.0 0 ---A--- null}
- -t 3 -s 1 -d 2 -p tcp -e 40 -c 0 -i 63 -a 0 -x {1.0 5.0 0 ---A--- null}
h -t 3 -s 1 -d 2 -p tcp -e 40 -c 0 -i 63 -a 0 -x {1.0 5.0 -1 ---A--- null}
r -t 3.010032 -s 0 -d 2 -p tcp -e 40 -c 0 -i 62 -a 0 -x {0.0 4.0 0 ---A--- null}
+ -t 3.010032 -s 2 -d 3 -p tcp -e 40 -c 0 -i 62 -a 0 -x {0.0 4.0 0 ---A--- null}
- -t 3.010032 -s 2 -d 3 -p tcp -e 40 -c 0 -i 62 -a 0 -x {0.0 4.0 0 ---A--- null}
h -t 3.010032 -s 2 -d 3 -p tcp -e 40 -c 0 -i 62 -a 0 -x {0.0 4.0 -1 ---A--- null}
r -t 3.010032 -s 1 -d 2 -p tcp -e 40 -c 0 -i 63 -a 0 -x {1.0 5.0 0 ---A--- null}
+ -t 3.010032 -s 2 -d 3 -p tcp -e 40 -c 0 -i 63 -a 0 -x {1.0 5.0 0 ---A--- null}
- -t 3.010192 -s 2 -d 3 -p tcp -e 40 -c 0 -i 63 -a 0 -x {1.0 5.0 0 ---A--- null}
h -t 3.010192 -s 2 -d 3 -p tcp -e 40 -c 0 -i 63 -a 0 -x {1.0 5.0 -1 ---A--- null}
r -t 3.020192 -s 2 -d 3 -p tcp -e 40 -c 0 -i 62 -a 0 -x {0.0 4.0 0 ---A--- null}
+ -t 3.020192 -s 3 -d 4 -p tcp -e 40 -c 0 -i 62 -a 0 -x {0.0 4.0 0 ---A--- null}
- -t 3.020192 -s 3 -d 4 -p tcp -e 40 -c 0 -i 62 -a 0 -x {0.0 4.0 0 ---A--- null}
h -t 3.020192 -s 3 -d 4 -p tcp -e 40 -c 0 -i 62 -a 0 -x {0.0 4.0 -1 ---A--- null}
r -t 3.020352 -s 2 -d 3 -p tcp -e 40 -c 0 -i 63 -a 0 -x {1.0 5.0 0 ---A--- null}
+ -t 3.020352 -s 3 -d 5 -p tcp -e 40 -c 0 -i 63 -a 0 -x {1.0 5.0 0 ---A--- null}
- -t 3.020352 -s 3 -d 5 -p tcp -e 40 -c 0 -i 63 -a 0 -x {1.0 5.0 0 ---A--- null}
h -t 3.020352 -s 3 -d 5 -p tcp -e 40 -c 0 -i 63 -a 0 -x {1.0 5.0 -1 ---A--- null}
r -t 3.030224 -s 3 -d 4 -p tcp -e 40 -c 0 -i 62 -a 0 -x {0.0 4.0 0 ---A--- null}
+ -t 3.030224 -s 4 -d 3 -p ack -e 40 -c 0 -i 64 -a 0 -x {4.0 0.0 0 ------- null}
- -t 3.030224 -s 4 -d 3 -p ack -e 40 -c 0 -i 64 -a 0 -x {4.0 0.0 0 ------- null}
h -t 3.030224 -s 4 -d 3 -p ack -e 40 -c 0 -i 64 -a 0 -x {4.0 0.0 -1 ------- null}
r -t 3.030384 -s 3 -d 5 -p tcp -e 40 -c 0 -i 63 -a 0 -x {1.0 5.0 0 ---A--- null}
+ -t 3.030384 -s 5 -d 3 -p ack -e 40 -c 0 -i 65 -a 0 -x {5.0 1.0 0 ------- null}
- -t 3.030384 -s 5 -d 3 -p ack -e 40 -c 0 -i 65 -a 0 -x {5.0 1.0 0 ------- null}
h -t 3.030384 -s 5 -d 3 -p ack -e 40 -c 0 -i 65 -a 0 -x {5.0 1.0 -1 ------- null}
r -t 3.040256 -s 4 -d 3 -p ack -e 40 -c 0 -i 64 -a 0 -x {4.0 0.0 0 ------- null}
+ -t 3.040256 -s 3 -d 2 -p ack -e 40 -c 0 -i 64 -a 0 -x {4.0 0.0 0 ------- null}
- -t 3.040256 -s 3 -d 2 -p ack -e 40 -c 0 -i 64 -a 0 -x {4.0 0.0 0 ------- null}
h -t 3.040256 -s 3 -d 2 -p ack -e 40 -c 0 -i 64 -a 0 -x {4.0 0.0 -1 ------- null}
r -t 3.040416 -s 5 -d 3 -p ack -e 40 -c 0 -i 65 -a 0 -x {5.0 1.0 0 ------- null}
+ -t 3.040416 -s 3 -d 2 -p ack -e 40 -c 0 -i 65 -a 0 -x {5.0 1.0 0 ------- null}
- -t 3.040416 -s 3 -d 2 -p ack -e 40 -c 0 -i 65 -a 0 -x {5.0 1.0 0 ------- null}
h -t 3.040416 -s 3 -d 2 -p ack -e 40 -c 0 -i 65 -a 0 -x {5.0 1.0 -1 ------- null}
r -t 3.050416 -s 3 -d 2 -p ack -e 40 -c 0 -i 64 -a 0 -x {4.0 0.0 0 ------- null}
+ -t 3.050416 -s 2 -d 0 -p ack -e 40 -c 0 -i 64 -a 0 -x {4.0 0.0 0 ------- null}
- -t 3.050416 -s 2 -d 0 -p ack -e 40 -c 0 -i 64 -a 0 -x {4.0 0.0 0 ------- null}
h -t 3.050416 -s 2 -d 0 -p ack -e 40 -c 0 -i 64 -a 0 -x {4.0 0.0 -1 ------- null}
r -t 3.050576 -s 3 -d 2 -p ack -e 40 -c 0 -i 65 -a 0 -x {5.0 1.0 0 ------- null}
+ -t 3.050576 -s 2 -d 1 -p ack -e 40 -c 0 -i 65 -a 0 -x {5.0 1.0 0 ------- null}
- -t 3.050576 -s 2 -d 1 -p ack -e 40 -c 0 -i 65 -a 0 -x {5.0 1.0 0 ------- null}
h -t 3.050576 -s 2 -d 1 -p ack -e 40 -c 0 -i 65 -a 0 -x {5.0 1.0 -1 ------- null}
r -t 3.060448 -s 2 -d 0 -p ack -e 40 -c 0 -i 64 -a 0 -x {4.0 0.0 0 ------- null}
+ -t 3.060448 -s 0 -d 2 -p tcp -e 1040 -c 0 -i 66 -a 0 -x {0.0 4.0 1 ------- null}
- -t 3.060448 -s 0 -d 2 -p tcp -e 1040 -c 0 -i 66 -a 0 -x {0.0 4.0 1 ------- null}
h -t 3.060448 -s 0 -d 2 -p tcp -e 1040 -c 0 -i 66 -a 0 -x {0.0 4.0 -1 ------- null}
r -t 3.060608 -s 2 -d 1 -p ack -e 40 -c 0 -i 65 -a 0 -x {5.0 1.0 0 ------- null}
+ -t 3.060608 -s 1 -d 2 -p tcp -e 1040 -c 0 -i 67 -a 0 -x {1.0 5.0 1 ------- null}
- -t 3.060608 -s 1 -d 2 -p tcp -e 1040 -c 0 -i 67 -a 0 -x {1.0 5.0 1 ------- null}
h -t 3.060608 -s 1 -d 2 -p tcp -e 1040 -c 0 -i 67 -a 0 -x {1.0 5.0 -1 ------- null}
r -t 3.07128 -s 0 -d 2 -p tcp -e 1040 -c 0 -i 66 -a 0 -x {0.0 4.0 1 ------- null}
+ -t 3.07128 -s 2 -d 3 -p tcp -e 1040 -c 0 -i 66 -a 0 -x {0.0 4.0 1 ------- null}
- -t 3.07128 -s 2 -d 3 -p tcp -e 1040 -c 0 -i 66 -a 0 -x {0.0 4.0 1 ------- null}
h -t 3.07128 -s 2 -d 3 -p tcp -e 1040 -c 0 -i 66 -a 0 -x {0.0 4.0 -1 ------- null}
r -t 3.07144 -s 1 -d 2 -p tcp -e 1040 -c 0 -i 67 -a 0 -x {1.0 5.0 1 ------- null}
+ -t 3.07144 -s 2 -d 3 -p tcp -e 1040 -c 0 -i 67 -a 0 -x {1.0 5.0 1 ------- null}
- -t 3.07544 -s 2 -d 3 -p tcp -e 1040 -c 0 -i 67 -a 0 -x {1.0 5.0 1 ------- null}
h -t 3.07544 -s 2 -d 3 -p tcp -e 1040 -c 0 -i 67 -a 0 -x {1.0 5.0 -1 ------- null}
r -t 3.08544 -s 2 -d 3 -p tcp -e 1040 -c 0 -i 66 -a 0 -x {0.0 4.0 1 ------- null}
+ -t 3.08544 -s 3 -d 4 -p tcp -e 1040 -c 0 -i 66 -a 0 -x {0.0 4.0 1 ------- null}
- -t 3.08544 -s 3 -d 4 -p tcp -e 1040 -c 0 -i 66 -a 0 -x {0.0 4.0 1 ------- null}
h -t 3.08544 -s 3 -d 4 -p tcp -e 1040 -c 0 -i 66 -a 0 -x {0.0 4.0 -1 ------- null}
r -t 3.0896 -s 2 -d 3 -p tcp -e 1040 -c 0 -i 67 -a 0 -x {1.0 5.0 1 ------- null}
+ -t 3.0896 -s 3 -d 5 -p tcp -e 1040 -c 0 -i 67 -a 0 -x {1.0 5.0 1 ------- null}
- -t 3.0896 -s 3 -d 5 -p tcp -e 1040 -c 0 -i 67 -a 0 -x {1.0 5.0 1 ------- null}
h -t 3.0896 -s 3 -d 5 -p tcp -e 1040 -c 0 -i 67 -a 0 -x {1.0 5.0 -1 ------- null}